/*--------------------------------*- C++ -*----------------------------------*\
| =========                 |                                                 |
| \\      /  F ield         | OpenFOAM: The Open Source CFD Toolbox           |
|  \\    /   O peration     | Version:  2112                                  |
|   \\  /    A nd           | Website:  www.openfoam.com                      |
|    \\/     M anipulation  |                                                 |
\*---------------------------------------------------------------------------*/
FoamFile
{
    version     2.0;
    format      ascii;
    arch        "LSB;label=32;scalar=64";
    class       volVectorField;
    location    "1000";
    object      U;
}
// * * * * * * * * * * * * * * * * * * * * * * * * * * * * * * * * * * * * * //

dimensions      [0 1 -1 0 0 0 0];

internalField   nonuniform List<vector> 
72690
(
(0.016869 -0.038823 0)
(0.054384 -0.045572 0)
(0.10241 -0.056251 0)
(0.15754 -0.063097 0)
(0.21593 -0.06635 0)
(0.27554 -0.067217 0)
(0.33486 -0.066459 0)
(0.39289 -0.064647 0)
(0.44903 -0.06208 0)
(0.5028 -0.059025 0)
(0.55365 -0.056118 0)
(0.60062 -0.05317 0)
(0.64119 -0.046412 0)
(0.67025 -0.031163 0)
(0.68323 -0.011491 0)
(0.68079 0.0041557 0)
(0.66781 0.01408 0)
(0.64869 0.020346 0)
(0.62546 0.024644 0)
(0.59882 0.027902 0)
(0.56884 0.030914 0)
(0.53525 0.034392 0)
(0.49736 0.038856 0)
(0.45404 0.044815 0)
(0.40357 0.052744 0)
(0.34378 0.063028 0)
(0.2725 0.075424 0)
(0.18874 0.088483 0)
(0.093584 0.10011 0)
(-0.010462 0.10869 0)
(-0.1191 0.11269 0)
(-0.22634 0.10967 0)
(-0.32431 0.096887 0)
(-0.40357 0.073918 0)
(-0.45662 0.045232 0)
(-0.4839 0.021271 0)
(-0.49657 0.015184 0)
(-0.518 0.037609 0)
(-0.57469 0.086981 0)
(-0.69098 0.14754 0)
(-0.87292 0.19879 0)
(-1.1025 0.22729 0)
(-1.3469 0.2277 0)
(-1.5758 0.20496 0)
(-1.7719 0.17093 0)
(-1.9308 0.13741 0)
(-2.0588 0.11267 0)
(-2.1674 0.1001 0)
(-2.2694 0.098692 0)
(-2.3742 0.10483 0)
(-2.4876 0.1139 0)
(-2.6108 0.12123 0)
(-2.742 0.12235 0)
(-2.8764 0.11345 0)
(-3.0067 0.09306 0)
(-3.126 0.065916 0)
(-3.2335 0.045862 0)
(-3.3394 0.051766 0)
(-3.4662 0.093673 0)
(-3.637 0.15904 0)
(-3.8547 0.21632 0)
(-4.1013 0.2401 0)
(-4.3554 0.22962 0)
(-4.5954 0.19917 0)
(-4.8105 0.16408 0)
(-5.0033 0.13557 0)
(-5.1828 0.11825 0)
(-5.3563 0.10962 0)
(-5.5286 0.10476 0)
(-5.7016 0.10053 0)
(-5.8753 0.096187 0)
(-6.0493 0.091994 0)
(-6.2231 0.088215 0)
(-6.3966 0.084841 0)
(-6.5698 0.081718 0)
(-6.7425 0.078679 0)
(-6.9147 0.075663 0)
(-7.0858 0.072778 0)
(-7.2563 0.070655 0)
(-7.4302 0.069952 0)
(0.025428 -0.061097 0)
(0.076606 -0.073847 0)
(0.12899 -0.088313 0)
(0.18381 -0.098209 0)
(0.24073 -0.10314 0)
(0.29808 -0.1046 0)
(0.35459 -0.10388 0)
(0.40921 -0.10174 0)
(0.46128 -0.098428 0)
(0.51026 -0.093742 0)
(0.5551 -0.086851 0)
(0.59361 -0.075947 0)
(0.6228 -0.058568 0)
(0.64169 -0.034479 0)
(0.65104 -0.0081347 0)
(0.64964 0.013962 0)
(0.63752 0.029309 0)
(0.6177 0.040017 0)
(0.59226 0.04858 0)
(0.56155 0.056506 0)
(0.52501 0.064627 0)
(0.4818 0.073619 0)
(0.43094 0.084315 0)
(0.37116 0.097735 0)
(0.30088 0.11471 0)
(0.21841 0.13527 0)
(0.12286 0.15815 0)
(0.014827 0.18063 0)
(-0.10342 0.19923 0)
(-0.22786 0.21075 0)
(-0.35315 0.2122 0)
(-0.47339 0.20054 0)
(-0.58393 0.17422 0)
(-0.68229 0.13596 0)
(-0.76942 0.094751 0)
(-0.84937 0.065685 0)
(-0.92871 0.06667 0)
(-1.0165 0.11158 0)
(-1.125 0.19933 0)
(-1.2697 0.30893 0)
(-1.4652 0.40501 0)
(-1.7112 0.45763 0)
(-1.9835 0.45901 0)
(-2.2516 0.41932 0)
(-2.498 0.35963 0)
(-2.7185 0.30156 0)
(-2.9173 0.25916 0)
(-3.103 0.23743 0)
(-3.2845 0.23441 0)
(-3.4689 0.24433 0)
(-3.661 0.26044 0)
(-3.8635 0.27709 0)
(-4.0776 0.29103 0)
(-4.3042 0.30173 0)
(-4.5452 0.31017 0)
(-4.8033 0.31723 0)
(-5.0805 0.32375 0)
(-5.3741 0.33266 0)
(-5.6759 0.35133 0)
(-5.9783 0.38767 0)
(-6.2827 0.4332 0)
(-6.597 0.46251 0)
(-6.9233 0.46503 0)
(-7.2583 0.45341 0)
(-7.6008 0.44001 0)
(-7.9527 0.42832 0)
(-8.314 0.42076 0)
(-8.6832 0.41969 0)
(-9.0593 0.42354 0)
(-9.4417 0.42848 0)
(-9.8297 0.43187 0)
(-10.222 0.43325 0)
(-10.617 0.43331 0)
(-11.013 0.4327 0)
(-11.411 0.43183 0)
(-11.808 0.43078 0)
(-12.206 0.42954 0)
(-12.603 0.42829 0)
(-12.998 0.42749 0)
(-13.397 0.42775 0)
(0.031786 -0.14694 0)
(0.092039 -0.15267 0)
(0.14713 -0.163 0)
(0.20059 -0.17234 0)
(0.25404 -0.17709 0)
(0.30731 -0.17694 0)
(0.35951 -0.17304 0)
(0.40946 -0.16663 0)
(0.4561 -0.15836 0)
(0.49844 -0.14791 0)
(0.53536 -0.13383 0)
(0.56541 -0.11366 0)
(0.58739 -0.085468 0)
(0.60114 -0.050272 0)
(0.60636 -0.012319 0)
(0.6018 0.022281 0)
(0.58667 0.048797 0)
(0.56192 0.067726 0)
(0.52915 0.082781 0)
(0.48933 0.097414 0)
(0.44253 0.11359 0)
(0.38777 0.13228 0)
(0.32354 0.15425 0)
(0.24829 0.18048 0)
(0.16077 0.21189 0)
(0.060309 0.24812 0)
(-0.053068 0.2865 0)
(-0.1776 0.32192 0)
(-0.31047 0.34858 0)
(-0.44692 0.36168 0)
(-0.58137 0.35832 0)
(-0.71004 0.33772 0)
(-0.83205 0.30178 0)
(-0.94974 0.25647 0)
(-1.0681 0.21211 0)
(-1.1921 0.18315 0)
(-1.3258 0.18646 0)
(-1.4703 0.23816 0)
(-1.6245 0.3467 0)
(-1.7912 0.50021 0)
(-1.986 0.65995 0)
(-2.23 0.76843 0)
(-2.5179 0.78924 0)
(-2.8162 0.7385 0)
(-3.1003 0.65408 0)
(-3.364 0.57011 0)
(-3.6107 0.50885 0)
(-3.8478 0.47819 0)
(-4.0841 0.47542 0)
(-4.3267 0.49266 0)
(-4.5811 0.52097 0)
(-4.8513 0.55289 0)
(-5.1412 0.58358 0)
(-5.4541 0.61082 0)
(-5.793 0.6347 0)
(-6.1584 0.65757 0)
(-6.5465 0.68391 0)
(-6.9488 0.71968 0)
(-7.3555 0.77038 0)
(-7.7605 0.83575 0)
(-8.1657 0.9024 0)
(-8.5793 0.94581 0)
(-9.0073 0.95217 0)
(-9.4512 0.93473 0)
(-9.9098 0.91658 0)
(-10.382 0.90967 0)
(-10.865 0.91435 0)
(-11.358 0.92654 0)
(-11.86 0.94162 0)
(-12.368 0.95597 0)
(-12.882 0.96762 0)
(-13.4 0.9761 0)
(-13.921 0.98183 0)
(-14.443 0.98542 0)
(-14.966 0.98733 0)
(-15.489 0.98789 0)
(-16.01 0.98723 0)
(-16.528 0.98556 0)
(-17.042 0.9832 0)
(-17.559 0.98012 0)
(0.030464 -0.22465 0)
(0.09035 -0.22743 0)
(0.14707 -0.23316 0)
(0.20044 -0.23971 0)
(0.25126 -0.24341 0)
(0.29999 -0.24232 0)
(0.34641 -0.23636 0)
(0.3898 -0.2263 0)
(0.42919 -0.21266 0)
(0.4636 -0.19523 0)
(0.49214 -0.17281 0)
(0.51433 -0.14356 0)
(0.52983 -0.10586 0)
(0.53785 -0.059755 0)
(0.53739 -0.0094515 0)
(0.52725 0.038265 0)
(0.50621 0.078664 0)
(0.47357 0.11081 0)
(0.42954 0.13723 0)
(0.37507 0.16191 0)
(0.31086 0.1884 0)
(0.23675 0.21909 0)
(0.15194 0.2553 0)
(0.055523 0.29756 0)
(-0.053095 0.34572 0)
(-0.17318 0.39811 0)
(-0.30341 0.45082 0)
(-0.44181 0.49723 0)
(-0.58587 0.52961 0)
(-0.73224 0.54225 0)
(-0.87805 0.53417 0)
(-1.0225 0.50841 0)
(-1.1679 0.4703 0)
(-1.3197 0.42807 0)
(-1.4838 0.39308 0)
(-1.663 0.37913 0)
(-1.8573 0.39983 0)
(-2.0626 0.46455 0)
(-2.272 0.57839 0)
(-2.4798 0.7438 0)
(-2.6927 0.94462 0)
(-2.9333 1.1193 0)
(-3.2199 1.1849 0)
(-3.5466 1.1366 0)
(-3.8775 1.0337 0)
(-4.1958 0.92773 0)
(-4.5031 0.85079 0)
(-4.8057 0.81565 0)
(-5.1124 0.81932 0)
(-5.4315 0.85196 0)
(-5.7694 0.90299 0)
(-6.1312 0.96398 0)
(-6.521 1.0293 0)
(-6.941 1.0951 0)
(-7.3909 1.1578 0)
(-7.8673 1.2136 0)
(-8.3651 1.2599 0)
(-8.8792 1.2997 0)
(-9.4047 1.3427 0)
(-9.9363 1.3999 0)
(-10.471 1.4714 0)
(-11.011 1.5399 0)
(-11.564 1.5848 0)
(-12.134 1.6035 0)
(-12.716 1.6102 0)
(-13.305 1.6181 0)
(-13.897 1.6317 0)
(-14.492 1.6499 0)
(-15.089 1.6694 0)
(-15.688 1.6871 0)
(-16.288 1.7011 0)
(-16.889 1.7108 0)
(-17.49 1.7164 0)
(-18.089 1.7185 0)
(-18.686 1.7176 0)
(-19.279 1.7141 0)
(-19.866 1.7081 0)
(-20.447 1.7 0)
(-21.019 1.6902 0)
(-21.591 1.6784 0)
(0.027399 -0.29569 0)
(0.082067 -0.29743 0)
(0.13549 -0.30016 0)
(0.18606 -0.3026 0)
(0.23293 -0.30216 0)
(0.27599 -0.297 0)
(0.31511 -0.2868 0)
(0.34998 -0.27187 0)
(0.38015 -0.25245 0)
(0.405 -0.22827 0)
(0.42411 -0.19855 0)
(0.43759 -0.162 0)
(0.44486 -0.11616 0)
(0.4455 -0.060055 0)
(0.4397 0.0012286 0)
(0.42418 0.061338 0)
(0.39583 0.11639 0)
(0.35271 0.16494 0)
(0.29361 0.20775 0)
(0.2191 0.24765 0)
(0.1307 0.28818 0)
(0.029862 0.33248 0)
(-0.082407 0.38252 0)
(-0.20514 0.43868 0)
(-0.33754 0.49998 0)
(-0.47814 0.56385 0)
(-0.62527 0.62572 0)
(-0.7775 0.67881 0)
(-0.934 0.7156 0)
(-1.095 0.73132 0)
(-1.2614 0.72654 0)
(-1.4346 0.70676 0)
(-1.6189 0.68 0)
(-1.8196 0.65535 0)
(-2.0392 0.64223 0)
(-2.2774 0.64953 0)
(-2.5307 0.68604 0)
(-2.7926 0.75961 0)
(-3.0564 0.87293 0)
(-3.3163 1.0264 0)
(-3.5665 1.2251 0)
(-3.815 1.4398 0)
(-4.0971 1.5789 0)
(-4.4449 1.5741 0)
(-4.8317 1.4751 0)
(-5.2269 1.3617 0)
(-5.6237 1.2791 0)
(-6.0236 1.2472 0)
(-6.4327 1.2653 0)
(-6.8589 1.322 0)
(-7.3086 1.4047 0)
(-7.7859 1.5025 0)
(-8.2923 1.607 0)
(-8.8266 1.7109 0)
(-9.3853 1.8073 0)
(-9.964 1.8914 0)
(-10.559 1.9618 0)
(-11.167 2.0223 0)
(-11.786 2.0808 0)
(-12.411 2.145 0)
(-13.04 2.216 0)
(-13.673 2.2843 0)
(-14.317 2.3362 0)
(-14.975 2.3669 0)
(-15.643 2.3842 0)
(-16.317 2.3986 0)
(-16.992 2.4156 0)
(-17.664 2.4351 0)
(-18.333 2.4548 0)
(-18.996 2.4719 0)
(-19.654 2.4846 0)
(-20.306 2.4919 0)
(-20.952 2.4939 0)
(-21.591 2.4908 0)
(-22.221 2.483 0)
(-22.842 2.4709 0)
(-23.453 2.4551 0)
(-24.053 2.436 0)
(-24.64 2.4138 0)
(-25.223 2.3885 0)
(0.023793 -0.35987 0)
(0.071158 -0.36105 0)
(0.11736 -0.36159 0)
(0.16083 -0.35997 0)
(0.20022 -0.35442 0)
(0.23516 -0.3437 0)
(0.26535 -0.32761 0)
(0.29041 -0.30649 0)
(0.31016 -0.2805 0)
(0.32443 -0.24935 0)
(0.33318 -0.21261 0)
(0.33659 -0.16969 0)
(0.33459 -0.11753 0)
(0.32805 -0.05335 0)
(0.31616 0.018746 0)
(0.29349 0.093616 0)
(0.2546 0.16741 0)
(0.19646 0.23769 0)
(0.11746 0.30312 0)
(0.018236 0.36427 0)
(-0.098871 0.42343 0)
(-0.23064 0.48339 0)
(-0.37408 0.54647 0)
(-0.52657 0.6135 0)
(-0.68591 0.68364 0)
(-0.85017 0.75436 0)
(-1.0177 0.82154 0)
(-1.188 0.87969 0)
(-1.3632 0.92331 0)
(-1.5473 0.949 0)
(-1.7434 0.95749 0)
(-1.9549 0.95463 0)
(-2.1859 0.94922 0)
(-2.4378 0.94919 0)
(-2.7096 0.96082 0)
(-2.9996 0.98934 0)
(-3.3042 1.0398 0)
(-3.6176 1.1186 0)
(-3.9336 1.2307 0)
(-4.2488 1.3739 0)
(-4.5529 1.5534 0)
(-4.8418 1.7738 0)
(-5.1513 1.9754 0)
(-5.5189 2.0553 0)
(-5.9592 2.0066 0)
(-6.4448 1.9141 0)
(-6.9518 1.8422 0)
(-7.4718 1.8213 0)
(-8.0039 1.8573 0)
(-8.5519 1.94 0)
(-9.1202 2.0538 0)
(-9.7109 2.1846 0)
(-10.323 2.3204 0)
(-10.955 2.4513 0)
(-11.603 2.5695 0)
(-12.264 2.6712 0)
(-12.936 2.7567 0)
(-13.62 2.8313 0)
(-14.314 2.9025 0)
(-15.015 2.9776 0)
(-15.719 3.0574 0)
(-16.424 3.1344 0)
(-17.132 3.1965 0)
(-17.844 3.2378 0)
(-18.559 3.2622 0)
(-19.276 3.278 0)
(-19.99 3.291 0)
(-20.697 3.303 0)
(-21.395 3.313 0)
(-22.083 3.3194 0)
(-22.759 3.3207 0)
(-23.424 3.3162 0)
(-24.076 3.3057 0)
(-24.715 3.2893 0)
(-25.342 3.2674 0)
(-25.954 3.2403 0)
(-26.553 3.2085 0)
(-27.135 3.1727 0)
(-27.702 3.1329 0)
(-28.261 3.0896 0)
(0.019161 -0.4138 0)
(0.056838 -0.41398 0)
(0.09278 -0.41184 0)
(0.1259 -0.4058 0)
(0.15479 -0.39474 0)
(0.1789 -0.378 0)
(0.19809 -0.35554 0)
(0.212 -0.32777 0)
(0.22048 -0.29501 0)
(0.22366 -0.25712 0)
(0.22168 -0.21371 0)
(0.21441 -0.16431 0)
(0.20209 -0.10689 0)
(0.1853 -0.037624 0)
(0.16106 0.045228 0)
(0.12519 0.13876 0)
(0.071447 0.23729 0)
(-0.0051973 0.33549 0)
(-0.1067 0.42926 0)
(-0.23241 0.51648 0)
(-0.37959 0.59758 0)
(-0.54396 0.6747 0)
(-0.72075 0.75035 0)
(-0.90572 0.82609 0)
(-1.0956 0.90173 0)
(-1.2876 0.97546 0)
(-1.4802 1.0449 0)
(-1.6748 1.108 0)
(-1.8764 1.1621 0)
(-2.0906 1.2044 0)
(-2.3219 1.2348 0)
(-2.5751 1.2574 0)
(-2.8525 1.2789 0)
(-3.152 1.3049 0)
(-3.4716 1.3401 0)
(-3.8093 1.3887 0)
(-4.1621 1.4546 0)
(-4.5259 1.5419 0)
(-4.8959 1.6552 0)
(-5.2692 1.7962 0)
(-5.6429 1.9649 0)
(-6.0098 2.1754 0)
(-6.3797 2.4117 0)
(-6.7915 2.5833 0)
(-7.2884 2.6286 0)
(-7.859 2.5954 0)
(-8.4738 2.5572 0)
(-9.1145 2.5559 0)
(-9.7696 2.6085 0)
(-10.435 2.7102 0)
(-11.113 2.8454 0)
(-11.801 2.9975 0)
(-12.501 3.1523 0)
(-13.209 3.299 0)
(-13.925 3.4309 0)
(-14.648 3.5448 0)
(-15.379 3.6424 0)
(-16.117 3.7282 0)
(-16.861 3.8087 0)
(-17.608 3.8887 0)
(-18.355 3.9687 0)
(-19.097 4.043 0)
(-19.833 4.1031 0)
(-20.566 4.1441 0)
(-21.294 4.1676 0)
(-22.018 4.1792 0)
(-22.733 4.1836 0)
(-23.438 4.1832 0)
(-24.129 4.1781 0)
(-24.805 4.1678 0)
(-25.466 4.1516 0)
(-26.111 4.1289 0)
(-26.738 4.0998 0)
(-27.349 4.0643 0)
(-27.943 4.0228 0)
(-28.52 3.9758 0)
(-29.079 3.9237 0)
(-29.619 3.8672 0)
(-30.142 3.8065 0)
(-30.654 3.742 0)
(0.012768 -0.45419 0)
(0.037498 -0.45269 0)
(0.060269 -0.44749 0)
(0.08045 -0.43706 0)
(0.096843 -0.42045 0)
(0.10859 -0.39752 0)
(0.11537 -0.36855 0)
(0.11698 -0.33422 0)
(0.11331 -0.29505 0)
(0.10444 -0.25092 0)
(0.090362 -0.20118 0)
(0.070541 -0.14491 0)
(0.044156 -0.080231 0)
(0.0099429 -0.0029897 0)
(-0.03414 0.091947 0)
(-0.090357 0.20463 0)
(-0.164 0.32962 0)
(-0.26104 0.45917 0)
(-0.38512 0.58575 0)
(-0.53692 0.70387 0)
(-0.71402 0.81106 0)
(-0.91135 0.90781 0)
(-1.1226 0.99647 0)
(-1.3418 1.0795 0)
(-1.5641 1.1579 0)
(-1.7861 1.232 0)
(-2.0077 1.3029 0)
(-2.2334 1.3723 0)
(-2.4687 1.44 0)
(-2.7183 1.5034 0)
(-2.9884 1.5611 0)
(-3.2842 1.614 0)
(-3.6056 1.6652 0)
(-3.9505 1.7183 0)
(-4.3171 1.7777 0)
(-4.7032 1.8473 0)
(-5.1063 1.9306 0)
(-5.5241 2.0313 0)
(-5.954 2.1536 0)
(-6.394 2.3024 0)
(-6.847 2.4798 0)
(-7.309 2.6922 0)
(-7.7731 2.9416 0)
(-8.2677 3.1796 0)
(-8.827 3.329 0)
(-9.4629 3.3851 0)
(-10.161 3.4032 0)
(-10.898 3.4325 0)
(-11.653 3.5002 0)
(-12.415 3.6107 0)
(-13.179 3.7531 0)
(-13.944 3.9114 0)
(-14.708 4.0714 0)
(-15.471 4.2227 0)
(-16.234 4.3591 0)
(-16.997 4.4784 0)
(-17.762 4.582 0)
(-18.528 4.6732 0)
(-19.295 4.7564 0)
(-20.058 4.8347 0)
(-20.815 4.9078 0)
(-21.561 4.9716 0)
(-22.295 5.0206 0)
(-23.019 5.0516 0)
(-23.731 5.0653 0)
(-24.433 5.0653 0)
(-25.121 5.0552 0)
(-25.795 5.0373 0)
(-26.453 5.0124 0)
(-27.092 4.9808 0)
(-27.712 4.9423 0)
(-28.314 4.8969 0)
(-28.895 4.8447 0)
(-29.458 4.7861 0)
(-30.001 4.7214 0)
(-30.524 4.6512 0)
(-31.028 4.576 0)
(-31.513 4.4964 0)
(-31.979 4.4127 0)
(-32.432 4.3254 0)
(0.0041377 -0.47607 0)
(0.012173 -0.47322 0)
(0.019244 -0.46539 0)
(0.024523 -0.45119 0)
(0.026922 -0.42975 0)
(0.025346 -0.40113 0)
(0.019068 -0.36589 0)
(0.0076904 -0.32497 0)
(-0.0091799 -0.27923 0)
(-0.031949 -0.2285 0)
(-0.061131 -0.17154 0)
(-0.09778 -0.10649 0)
(-0.14381 -0.030793 0)
(-0.20133 0.059496 0)
(-0.27077 0.1688 0)
(-0.35324 0.29964 0)
(-0.45246 0.44934 0)
(-0.57376 0.61019 0)
(-0.722 0.77207 0)
(-0.8997 0.92532 0)
(-1.1057 1.0631 0)
(-1.3349 1.1827 0)
(-1.5798 1.2854 0)
(-1.8322 1.3742 0)
(-2.0858 1.4531 0)
(-2.3385 1.5271 0)
(-2.594 1.6018 0)
(-2.8574 1.6809 0)
(-3.1319 1.7648 0)
(-3.4222 1.8515 0)
(-3.735 1.9384 0)
(-4.0736 2.0235 0)
(-4.4384 2.1064 0)
(-4.8289 2.1892 0)
(-5.244 2.2755 0)
(-5.6818 2.3695 0)
(-6.1407 2.4747 0)
(-6.6196 2.5954 0)
(-7.1178 2.7367 0)
(-7.6347 2.9053 0)
(-8.1731 3.1058 0)
(-8.7334 3.3392 0)
(-9.3078 3.6053 0)
(-9.8982 3.8809 0)
(-10.525 4.1064 0)
(-11.214 4.2508 0)
(-11.965 4.338 0)
(-12.761 4.409 0)
(-13.58 4.4943 0)
(-14.406 4.6074 0)
(-15.229 4.7454 0)
(-16.042 4.8972 0)
(-16.847 5.0504 0)
(-17.642 5.1958 0)
(-18.43 5.3277 0)
(-19.211 5.4438 0)
(-19.986 5.5448 0)
(-20.755 5.6326 0)
(-21.518 5.71 0)
(-22.271 5.7783 0)
(-23.011 5.837 0)
(-23.735 5.8835 0)
(-24.443 5.9144 0)
(-25.135 5.9278 0)
(-25.81 5.9245 0)
(-26.47 5.9066 0)
(-27.112 5.8768 0)
(-27.737 5.8373 0)
(-28.343 5.7892 0)
(-28.928 5.7331 0)
(-29.494 5.6695 0)
(-30.038 5.5988 0)
(-30.562 5.5213 0)
(-31.065 5.4375 0)
(-31.547 5.3478 0)
(-32.01 5.2529 0)
(-32.454 5.1535 0)
(-32.877 5.05 0)
(-33.282 4.9429 0)
(-33.673 4.8327 0)
(-0.0061825 -0.47427 0)
(-0.018063 -0.47159 0)
(-0.0291 -0.46309 0)
(-0.040209 -0.44665 0)
(-0.052879 -0.42139 0)
(-0.068677 -0.38773 0)
(-0.088864 -0.34663 0)
(-0.11433 -0.29901 0)
(-0.1461 -0.24556 0)
(-0.18551 -0.18613 0)
(-0.23391 -0.11917 0)
(-0.29275 -0.042024 0)
(-0.36394 0.048269 0)
(-0.44878 0.15462 0)
(-0.54773 0.28083 0)
(-0.66124 0.43058 0)
(-0.79129 0.60368 0)
(-0.94168 0.79399 0)
(-1.1171 0.99063 0)
(-1.3212 1.1806 0)
(-1.5547 1.352 0)
(-1.8131 1.4969 0)
(-2.088 1.6136 0)
(-2.3699 1.7072 0)
(-2.6532 1.7873 0)
(-2.9401 1.8649 0)
(-3.2353 1.9482 0)
(-3.5409 2.0407 0)
(-3.8588 2.1428 0)
(-4.1944 2.2537 0)
(-4.5523 2.37 0)
(-4.9352 2.4873 0)
(-5.345 2.6035 0)
(-5.7832 2.7195 0)
(-6.2496 2.8377 0)
(-6.7433 2.9617 0)
(-7.2634 3.0959 0)
(-7.8096 3.245 0)
(-8.3821 3.4155 0)
(-8.9808 3.6142 0)
(-9.6062 3.8457 0)
(-10.258 4.1085 0)
(-10.927 4.3956 0)
(-11.606 4.6908 0)
(-12.301 4.9602 0)
(-13.034 5.1713 0)
(-13.816 5.3229 0)
(-14.638 5.4383 0)
(-15.485 5.5442 0)
(-16.34 5.6583 0)
(-17.189 5.7859 0)
(-18.024 5.9224 0)
(-18.845 6.0596 0)
(-19.65 6.1899 0)
(-20.44 6.3083 0)
(-21.217 6.4123 0)
(-21.981 6.5016 0)
(-22.732 6.577 0)
(-23.47 6.6397 0)
(-24.192 6.6903 0)
(-24.896 6.7283 0)
(-25.581 6.7519 0)
(-26.245 6.7594 0)
(-26.889 6.7499 0)
(-27.513 6.7241 0)
(-28.118 6.6836 0)
(-28.704 6.6305 0)
(-29.269 6.5665 0)
(-29.815 6.493 0)
(-30.339 6.411 0)
(-30.842 6.3212 0)
(-31.324 6.2243 0)
(-31.785 6.1208 0)
(-32.226 6.0113 0)
(-32.646 5.8966 0)
(-33.048 5.7772 0)
(-33.43 5.6539 0)
(-33.794 5.5272 0)
(-34.14 5.3976 0)
(-34.473 5.2658 0)
(-0.016923 -0.44582 0)
(-0.049884 -0.44478 0)
(-0.080835 -0.438 0)
(-0.11029 -0.42183 0)
(-0.13965 -0.39444 0)
(-0.17093 -0.35627 0)
(-0.20638 -0.30899 0)
(-0.24803 -0.25374 0)
(-0.29782 -0.19063 0)
(-0.35789 -0.11915 0)
(-0.43034 -0.037936 0)
(-0.51681 0.0553 0)
(-0.61802 0.16297 0)
(-0.73462 0.28768 0)
(-0.86684 0.43285 0)
(-1.0147 0.60251 0)
(-1.1787 0.79804 0)
(-1.3611 1.0152 0)
(-1.5655 1.2439 0)
(-1.7958 1.4692 0)
(-2.0538 1.6742 0)
(-2.3369 1.8447 0)
(-2.6373 1.976 0)
(-2.9469 2.0766 0)
(-3.2635 2.1634 0)
(-3.5901 2.2512 0)
(-3.928 2.3479 0)
(-4.2775 2.4562 0)
(-4.6416 2.5782 0)
(-5.0245 2.7134 0)
(-5.4291 2.8584 0)
(-5.8588 3.0084 0)
(-6.317 3.1602 0)
(-6.8061 3.3133 0)
(-7.327 3.4688 0)
(-7.8797 3.6295 0)
(-8.4639 3.7998 0)
(-9.0793 3.9854 0)
(-9.7259 4.1926 0)
(-10.403 4.4273 0)
(-11.106 4.6917 0)
(-11.833 4.981 0)
(-12.575 5.2851 0)
(-13.322 5.5915 0)
(-14.073 5.8816 0)
(-14.842 6.1315 0)
(-15.638 6.3292 0)
(-16.462 6.4821 0)
(-17.308 6.6079 0)
(-18.16 6.7232 0)
(-19.007 6.8383 0)
(-19.839 6.9551 0)
(-20.652 7.0699 0)
(-21.445 7.178 0)
(-22.218 7.2751 0)
(-22.973 7.3589 0)
(-23.708 7.4283 0)
(-24.425 7.4832 0)
(-25.123 7.524 0)
(-25.8 7.5507 0)
(-26.456 7.5629 0)
(-27.089 7.5597 0)
(-27.699 7.5401 0)
(-28.287 7.5041 0)
(-28.853 7.4524 0)
(-29.397 7.3863 0)
(-29.921 7.3075 0)
(-30.424 7.2176 0)
(-30.906 7.1181 0)
(-31.366 7.0099 0)
(-31.807 6.8939 0)
(-32.226 6.7712 0)
(-32.626 6.6424 0)
(-33.006 6.5083 0)
(-33.368 6.3696 0)
(-33.711 6.2271 0)
(-34.037 6.0814 0)
(-34.346 5.9332 0)
(-34.639 5.7831 0)
(-34.92 5.6316 0)
(-0.026652 -0.3911 0)
(-0.079308 -0.39225 0)
(-0.13052 -0.38806 0)
(-0.18035 -0.37367 0)
(-0.2293 -0.34624 0)
(-0.27895 -0.3048 0)
(-0.33237 -0.25057 0)
(-0.39347 -0.18514 0)
(-0.46576 -0.1089 0)
(-0.55195 -0.021307 0)
(-0.654 0.078471 0)
(-0.77282 0.19139 0)
(-0.90866 0.31907 0)
(-1.0612 0.46378 0)
(-1.2299 0.62889 0)
(-1.4142 0.81839 0)
(-1.6135 1.0346 0)
(-1.8281 1.2751 0)
(-2.0604 1.5312 0)
(-2.3136 1.7874 0)
(-2.5911 2.0237 0)
(-2.8935 2.2208 0)
(-3.2182 2.3716 0)
(-3.5604 2.4868 0)
(-3.9167 2.5873 0)
(-4.2852 2.6899 0)
(-4.6652 2.8023 0)
(-5.0585 2.9286 0)
(-5.469 3.0719 0)
(-5.8993 3.2322 0)
(-6.3524 3.4066 0)
(-6.8322 3.5908 0)
(-7.3425 3.7808 0)
(-7.8858 3.9746 0)
(-8.4635 4.1719 0)
(-9.076 4.3746 0)
(-9.7231 4.5866 0)
(-10.404 4.8134 0)
(-11.117 5.0602 0)
(-11.86 5.3304 0)
(-12.626 5.6234 0)
(-13.408 5.9323 0)
(-14.198 6.2466 0)
(-14.989 6.5563 0)
(-15.777 6.8506 0)
(-16.565 7.1147 0)
(-17.363 7.3362 0)
(-18.174 7.513 0)
(-18.997 7.6532 0)
(-19.825 7.769 0)
(-20.646 7.8714 0)
(-21.452 7.9667 0)
(-22.239 8.0557 0)
(-23.002 8.1365 0)
(-23.743 8.2066 0)
(-24.46 8.2637 0)
(-25.154 8.3067 0)
(-25.825 8.335 0)
(-26.473 8.3485 0)
(-27.097 8.3468 0)
(-27.697 8.3298 0)
(-28.272 8.2971 0)
(-28.824 8.2484 0)
(-29.352 8.1839 0)
(-29.857 8.1045 0)
(-30.34 8.0114 0)
(-30.802 7.9062 0)
(-31.242 7.7902 0)
(-31.662 7.6647 0)
(-32.062 7.531 0)
(-32.442 7.39 0)
(-32.803 7.2429 0)
(-33.146 7.0904 0)
(-33.47 6.9335 0)
(-33.778 6.7728 0)
(-34.069 6.6092 0)
(-34.344 6.4434 0)
(-34.604 6.276 0)
(-34.85 6.1076 0)
(-35.086 5.9388 0)
(-0.034083 -0.31373 0)
(-0.10327 -0.3157 0)
(-0.17417 -0.31251 0)
(-0.24552 -0.29903 0)
(-0.31711 -0.272 0)
(-0.38987 -0.22824 0)
(-0.46676 -0.16654 0)
(-0.55278 -0.08784 0)
(-0.65295 0.0063549 0)
(-0.7705 0.11469 0)
(-0.90691 0.23649 0)
(-1.0624 0.37178 0)
(-1.2364 0.5213 0)
(-1.4278 0.68694 0)
(-1.6354 0.87178 0)
(-1.8575 1.0795 0)
(-2.092 1.3129 0)
(-2.3377 1.5712 0)
(-2.5949 1.8476 0)
(-2.8665 2.1284 0)
(-3.1578 2.3942 0)
(-3.4765 2.6244 0)
(-3.8281 2.8059 0)
(-4.2082 2.9447 0)
(-4.6059 3.0626 0)
(-5.0147 3.1805 0)
(-5.4351 3.3097 0)
(-5.8713 3.4562 0)
(-6.327 3.6233 0)
(-6.805 3.8114 0)
(-7.3089 4.018 0)
(-7.8421 4.2389 0)
(-8.4073 4.4695 0)
(-9.0065 4.7063 0)
(-9.6408 4.9477 0)
(-10.311 5.1947 0)
(-11.015 5.4502 0)
(-11.752 5.7181 0)
(-12.519 6.0018 0)
(-13.31 6.302 0)
(-14.117 6.6153 0)
(-14.933 6.9345 0)
(-15.749 7.2504 0)
(-16.561 7.5553 0)
(-17.363 7.8422 0)
(-18.155 8.1029 0)
(-18.942 8.3282 0)
(-19.729 8.5129 0)
(-20.517 8.6584 0)
(-21.304 8.7715 0)
(-22.083 8.861 0)
(-22.848 8.9345 0)
(-23.593 8.9962 0)
(-24.313 9.047 0)
(-25.009 9.0862 0)
(-25.678 9.1125 0)
(-26.322 9.1247 0)
(-26.94 9.1222 0)
(-27.532 9.1048 0)
(-28.099 9.0721 0)
(-28.641 9.024 0)
(-29.157 8.9605 0)
(-29.649 8.8817 0)
(-30.117 8.7881 0)
(-30.562 8.6807 0)
(-30.985 8.5605 0)
(-31.387 8.429 0)
(-31.769 8.2874 0)
(-32.131 8.1372 0)
(-32.474 7.9793 0)
(-32.799 7.8151 0)
(-33.106 7.6455 0)
(-33.396 7.4714 0)
(-33.67 7.2938 0)
(-33.929 7.1134 0)
(-34.173 6.931 0)
(-34.403 6.7474 0)
(-34.62 6.5631 0)
(-34.825 6.3788 0)
(-35.02 6.195 0)
(-0.039765 -0.21971 0)
(-0.12259 -0.2181 0)
(-0.21186 -0.21146 0)
(-0.30483 -0.19591 0)
(-0.40119 -0.16682 0)
(-0.50217 -0.11883 0)
(-0.60988 -0.048064 0)
(-0.72842 0.046209 0)
(-0.86217 0.16152 0)
(-1.0148 0.29421 0)
(-1.1883 0.44117 0)
(-1.3826 0.6008 0)
(-1.5965 0.77311 0)
(-1.8281 0.95959 0)
(-2.0754 1.1628 0)
(-2.3353 1.3859 0)
(-2.605 1.6317 0)
(-2.8814 1.9003 0)
(-3.1631 2.1884 0)
(-3.4524 2.4871 0)
(-3.7566 2.7825 0)
(-4.0892 3.0556 0)
(-4.4632 3.2823 0)
(-4.8766 3.452 0)
(-5.3132 3.5874 0)
(-5.7615 3.7203 0)
(-6.2222 3.868 0)
(-6.701 4.0377 0)
(-7.2023 4.2325 0)
(-7.7298 4.4528 0)
(-8.2865 4.6956 0)
(-8.8745 4.9557 0)
(-9.495 5.2278 0)
(-10.149 5.5075 0)
(-10.836 5.7924 0)
(-11.557 6.0821 0)
(-12.308 6.3781 0)
(-13.088 6.6823 0)
(-13.891 6.9957 0)
(-14.711 7.3167 0)
(-15.539 7.6405 0)
(-16.368 7.9603 0)
(-17.19 8.2694 0)
(-18.001 8.5618 0)
(-18.798 8.8331 0)
(-19.578 9.0784 0)
(-20.344 9.2923 0)
(-21.099 9.4701 0)
(-21.844 9.6102 0)
(-22.582 9.7151 0)
(-23.309 9.7903 0)
(-24.021 9.8423 0)
(-24.713 9.8766 0)
(-25.381 9.8964 0)
(-26.023 9.9029 0)
(-26.639 9.8959 0)
(-27.227 9.8749 0)
(-27.789 9.8395 0)
(-28.324 9.7893 0)
(-28.832 9.7243 0)
(-29.315 9.6445 0)
(-29.773 9.55 0)
(-30.206 9.4412 0)
(-30.616 9.3189 0)
(-31.004 9.1839 0)
(-31.37 9.0373 0)
(-31.717 8.8805 0)
(-32.044 8.7146 0)
(-32.352 8.5411 0)
(-32.643 8.361 0)
(-32.917 8.1754 0)
(-33.175 7.9854 0)
(-33.418 7.7919 0)
(-33.646 7.5958 0)
(-33.861 7.3979 0)
(-34.062 7.199 0)
(-34.252 6.9997 0)
(-34.43 6.8007 0)
(-34.597 6.6025 0)
(-34.756 6.4056 0)
(-0.046561 -0.11117 0)
(-0.14347 -0.1021 0)
(-0.24911 -0.086599 0)
(-0.36287 -0.063604 0)
(-0.48558 -0.026633 0)
(-0.61852 0.031137 0)
(-0.76266 0.11469 0)
(-0.91977 0.22569 0)
(-1.0923 0.36232 0)
(-1.2829 0.52006 0)
(-1.494 0.69362 0)
(-1.7263 0.87909 0)
(-1.9789 1.075 0)
(-2.2494 1.282 0)
(-2.535 1.502 0)
(-2.8321 1.7376 0)
(-3.137 1.9913 0)
(-3.4459 2.2645 0)
(-3.7567 2.5569 0)
(-4.07 2.8664 0)
(-4.3924 3.1869 0)
(-4.7362 3.5044 0)
(-5.1173 3.7871 0)
(-5.5473 4.0016 0)
(-6.0176 4.1608 0)
(-6.507 4.3101 0)
(-7.0104 4.4785 0)
(-7.5344 4.6748 0)
(-8.0843 4.9019 0)
(-8.6631 5.1588 0)
(-9.2727 5.4405 0)
(-9.9139 5.7407 0)
(-10.586 6.0532 0)
(-11.29 6.373 0)
(-12.023 6.6972 0)
(-12.783 7.0241 0)
(-13.57 7.3536 0)
(-14.377 7.6856 0)
(-15.199 8.0186 0)
(-16.029 8.3497 0)
(-16.858 8.6738 0)
(-17.681 8.9856 0)
(-18.492 9.2802 0)
(-19.287 9.5537 0)
(-20.063 9.803 0)
(-20.818 10.025 0)
(-21.553 10.218 0)
(-22.269 10.377 0)
(-22.968 10.502 0)
(-23.652 10.591 0)
(-24.321 10.649 0)
(-24.974 10.679 0)
(-25.607 10.687 0)
(-26.217 10.676 0)
(-26.802 10.65 0)
(-27.36 10.609 0)
(-27.891 10.554 0)
(-28.395 10.485 0)
(-28.872 10.402 0)
(-29.323 10.304 0)
(-29.749 10.193 0)
(-30.15 10.068 0)
(-30.527 9.93 0)
(-30.882 9.7798 0)
(-31.216 9.6183 0)
(-31.529 9.4466 0)
(-31.823 9.2658 0)
(-32.1 9.0772 0)
(-32.358 8.8821 0)
(-32.601 8.6814 0)
(-32.828 8.4764 0)
(-33.041 8.2679 0)
(-33.24 8.057 0)
(-33.425 7.8444 0)
(-33.599 7.6309 0)
(-33.761 7.4173 0)
(-33.912 7.2042 0)
(-34.053 6.9923 0)
(-34.184 6.7818 0)
(-34.307 6.5735 0)
(-0.056407 0.016994 0)
(-0.17149 0.033388 0)
(-0.29415 0.060739 0)
(-0.42882 0.098079 0)
(-0.57873 0.15094 0)
(-0.74473 0.22548 0)
(-0.92665 0.32651 0)
(-1.1243 0.45608 0)
(-1.338 0.61308 0)
(-1.5684 0.79372 0)
(-1.817 0.99244 0)
(-2.0852 1.2036 0)
(-2.373 1.4233 0)
(-2.6786 1.6507 0)
(-2.999 1.8869 0)
(-3.3306 2.1339 0)
(-3.6698 2.3942 0)
(-4.0134 2.67 0)
(-4.3588 2.9636 0)
(-4.7048 3.2768 0)
(-5.0543 3.6099 0)
(-5.4127 3.9574 0)
(-5.7923 4.2939 0)
(-6.2205 4.574 0)
(-6.7102 4.7794 0)
(-7.2383 4.954 0)
(-7.7877 5.1465 0)
(-8.3612 5.373 0)
(-8.9624 5.6349 0)
(-9.5924 5.9295 0)
(-10.252 6.25 0)
(-10.942 6.5884 0)
(-11.659 6.9378 0)
(-12.403 7.2926 0)
(-13.171 7.6491 0)
(-13.96 8.0049 0)
(-14.766 8.3581 0)
(-15.585 8.7069 0)
(-16.41 9.0485 0)
(-17.233 9.379 0)
(-18.049 9.6944 0)
(-18.852 9.9907 0)
(-19.638 10.265 0)
(-20.404 10.514 0)
(-21.148 10.737 0)
(-21.868 10.931 0)
(-22.564 11.096 0)
(-23.237 11.229 0)
(-23.887 11.329 0)
(-24.516 11.397 0)
(-25.127 11.433 0)
(-25.718 11.44 0)
(-26.289 11.421 0)
(-26.838 11.381 0)
(-27.363 11.323 0)
(-27.862 11.249 0)
(-28.335 11.161 0)
(-28.782 11.059 0)
(-29.202 10.943 0)
(-29.597 10.814 0)
(-29.968 10.672 0)
(-30.315 10.518 0)
(-30.639 10.352 0)
(-30.942 10.175 0)
(-31.224 9.9882 0)
(-31.488 9.7926 0)
(-31.733 9.5894 0)
(-31.961 9.3797 0)
(-32.174 9.1644 0)
(-32.371 8.9449 0)
(-32.554 8.722 0)
(-32.723 8.4967 0)
(-32.88 8.2699 0)
(-33.024 8.0423 0)
(-33.158 7.8148 0)
(-33.281 7.588 0)
(-33.395 7.3626 0)
(-33.498 7.1389 0)
(-33.594 6.9176 0)
(-33.682 6.699 0)
(-0.068942 0.17204 0)
(-0.20771 0.19352 0)
(-0.35264 0.23328 0)
(-0.51146 0.29003 0)
(-0.68919 0.36571 0)
(-0.88707 0.46344 0)
(-1.1046 0.58658 0)
(-1.3406 0.73716 0)
(-1.5936 0.91448 0)
(-1.8629 1.1156 0)
(-2.1483 1.3361 0)
(-2.4504 1.5702 0)
(-2.7696 1.8126 0)
(-3.1056 2.06 0)
(-3.4561 2.3123 0)
(-3.8181 2.5714 0)
(-4.1887 2.8397 0)
(-4.5655 3.1203 0)
(-4.9467 3.4161 0)
(-5.33 3.7298 0)
(-5.715 4.0637 0)
(-6.1007 4.4211 0)
(-6.4911 4.7947 0)
(-6.9146 5.1452 0)
(-7.4038 5.4247 0)
(-7.9577 5.6492 0)
(-8.5512 5.8762 0)
(-9.1739 6.1356 0)
(-9.825 6.4319 0)
(-10.503 6.7617 0)
(-11.207 7.1173 0)
(-11.937 7.4894 0)
(-12.69 7.8698 0)
(-13.463 8.2523 0)
(-14.254 8.6326 0)
(-15.058 9.0072 0)
(-15.871 9.3733 0)
(-16.687 9.7276 0)
(-17.501 10.067 0)
(-18.305 10.387 0)
(-19.096 10.686 0)
(-19.869 10.961 0)
(-20.62 11.209 0)
(-21.349 11.43 0)
(-22.052 11.623 0)
(-22.73 11.786 0)
(-23.381 11.919 0)
(-24.006 12.021 0)
(-24.606 12.092 0)
(-25.182 12.133 0)
(-25.734 12.143 0)
(-26.265 12.124 0)
(-26.775 12.079 0)
(-27.262 12.011 0)
(-27.727 11.922 0)
(-28.167 11.817 0)
(-28.582 11.697 0)
(-28.972 11.562 0)
(-29.338 11.415 0)
(-29.679 11.256 0)
(-29.996 11.084 0)
(-30.291 10.902 0)
(-30.564 10.709 0)
(-30.817 10.507 0)
(-31.051 10.297 0)
(-31.267 10.079 0)
(-31.465 9.8545 0)
(-31.647 9.6248 0)
(-31.815 9.3908 0)
(-31.968 9.1536 0)
(-32.107 8.9142 0)
(-32.234 8.6733 0)
(-32.349 8.4318 0)
(-32.453 8.1905 0)
(-32.547 7.9501 0)
(-32.631 7.7112 0)
(-32.706 7.4743 0)
(-32.772 7.24 0)
(-32.83 7.0086 0)
(-32.881 6.7807 0)
(-0.08378 0.36046 0)
(-0.25218 0.3864 0)
(-0.42661 0.43862 0)
(-0.61456 0.51611 0)
(-0.82142 0.61726 0)
(-1.0494 0.74158 0)
(-1.2989 0.89009 0)
(-1.5683 1.0639 0)
(-1.8558 1.2625 0)
(-2.1598 1.4834 0)
(-2.4791 1.7228 0)
(-2.8127 1.9759 0)
(-3.1606 2.2377 0)
(-3.523 2.5038 0)
(-3.8992 2.7723 0)
(-4.2872 3.0444 0)
(-4.6848 3.3231 0)
(-5.0907 3.6119 0)
(-5.5038 3.914 0)
(-5.9225 4.2313 0)
(-6.3468 4.5646 0)
(-6.7748 4.9196 0)
(-7.2 5.3076 0)
(-7.6355 5.7106 0)
(-8.1223 6.0744 0)
(-8.6865 6.3779 0)
(-9.3095 6.6591 0)
(-9.9707 6.9574 0)
(-10.663 7.2866 0)
(-11.38 7.6472 0)
(-12.119 8.0321 0)
(-12.879 8.4313 0)
(-13.657 8.8354 0)
(-14.449 9.2373 0)
(-15.25 9.6318 0)
(-16.057 10.015 0)
(-16.864 10.383 0)
(-17.666 10.732 0)
(-18.457 11.059 0)
(-19.233 11.362 0)
(-19.99 11.638 0)
(-20.725 11.885 0)
(-21.436 12.104 0)
(-22.121 12.294 0)
(-22.78 12.453 0)
(-23.41 12.583 0)
(-24.013 12.682 0)
(-24.588 12.751 0)
(-25.136 12.79 0)
(-25.658 12.799 0)
(-26.155 12.78 0)
(-26.628 12.733 0)
(-27.078 12.66 0)
(-27.506 12.564 0)
(-27.911 12.448 0)
(-28.293 12.313 0)
(-28.652 12.162 0)
(-28.987 11.998 0)
(-29.298 11.821 0)
(-29.587 11.632 0)
(-29.853 11.433 0)
(-30.097 11.224 0)
(-30.321 11.006 0)
(-30.526 10.78 0)
(-30.712 10.547 0)
(-30.881 10.307 0)
(-31.033 10.063 0)
(-31.17 9.8141 0)
(-31.293 9.5624 0)
(-31.402 9.3085 0)
(-31.498 9.0533 0)
(-31.583 8.7978 0)
(-31.656 8.5425 0)
(-31.719 8.2882 0)
(-31.772 8.0357 0)
(-31.815 7.7853 0)
(-31.85 7.5378 0)
(-31.877 7.2935 0)
(-31.896 7.0529 0)
(-31.909 6.8163 0)
(-0.10117 0.58919 0)
(-0.30486 0.62011 0)
(-0.51469 0.68413 0)
(-0.73622 0.78057 0)
(-0.97424 0.90584 0)
(-1.2317 1.0566 0)
(-1.5097 1.2313 0)
(-1.8075 1.4293 0)
(-2.1233 1.6498 0)
(-2.4555 1.8904 0)
(-2.8027 2.1477 0)
(-3.1638 2.4175 0)
(-3.5378 2.6955 0)
(-3.9244 2.9779 0)
(-4.3236 3.2621 0)
(-4.7348 3.548 0)
(-5.1565 3.8385 0)
(-5.5876 4.138 0)
(-6.0278 4.4504 0)
(-6.4771 4.7781 0)
(-6.9369 5.1205 0)
(-7.4106 5.4779 0)
(-7.8908 5.8663 0)
(-8.3681 6.295 0)
(-8.8726 6.728 0)
(-9.442 7.1188 0)
(-10.075 7.4708 0)
(-10.754 7.8181 0)
(-11.469 8.1829 0)
(-12.213 8.5721 0)
(-12.976 8.9814 0)
(-13.756 9.4007 0)
(-14.547 9.8203 0)
(-15.345 10.232 0)
(-16.145 10.631 0)
(-16.943 11.013 0)
(-17.733 11.373 0)
(-18.511 11.707 0)
(-19.272 12.015 0)
(-20.013 12.293 0)
(-20.731 12.541 0)
(-21.423 12.758 0)
(-22.089 12.944 0)
(-22.727 13.1 0)
(-23.337 13.224 0)
(-23.918 13.319 0)
(-24.471 13.383 0)
(-24.995 13.417 0)
(-25.491 13.422 0)
(-25.96 13.399 0)
(-26.403 13.348 0)